LAMMPS Description

     496  atoms
     352  bonds
     280  angles
     144  dihedrals
     0  impropers

     5  atom types
     3  bond types
     4  angle types
     2  dihedral types

  -0.1731 17.4831 xlo xhi
  -0.1731 17.4831 ylo yhi
  -0.1731 17.4831 zlo zhi

Masses

1 15.999  # 65
2 1.008  # 66
3 12.011  # 80
4 12.011  # 81
5 1.008  # 85

Atoms  # full

1 1 1 0.0 5.92487 5.92487 5.92487
2 1 2 0.0 5.75998 6.83792 5.68955
3 1 2 0.0 6.84272 5.77984 5.69518
4 2 1 0.0 5.32179 5.32179 8.5662
5 2 2 0.0 5.53914 5.52632 7.65672
6 2 2 0.0 6.12716 4.95217 8.92812
7 3 1 0.0 7.66071 4.2387 9.64929
8 3 2 0.0 8.03033 4.60062 10.45466
9 3 2 0.0 7.45618 3.32922 9.86664
10 4 1 0.0 9.64929 4.2387 7.66071
11 4 2 0.0 8.95131 4.25234 8.31559
12 4 2 0.0 9.24946 4.61362 6.87598
13 5 1 0.0 8.5662 5.32179 5.32179
14 5 2 0.0 8.58169 4.66966 4.62128
15 5 2 0.0 8.94432 6.1074 4.92673
16 6 1 0.0 4.2387 7.66071 9.64929
17 6 2 0.0 4.60062 6.85534 9.27967
18 6 2 0.0 3.32922 7.44336 9.85382
19 7 1 0.0 4.20371 9.63809 7.64989
20 7 2 0.0 4.22695 8.98285 8.34728
21 7 2 0.0 4.58643 10.42187 8.04415
22 8 1 0.0 5.26439 8.54844 5.30462
23 8 2 0.0 4.8662 8.92706 6.08841
24 8 2 0.0 4.56904 8.57135 4.6472
25 9 1 0.0 7.59104 9.68721 4.25266
26 9 2 0.0 6.78722 9.29891 4.59812
27 9 2 0.0 7.39129 9.87671 3.33592
28 10 1 0.0 9.65672 7.66856 4.2634
29 10 2 0.0 9.00013 8.36495 4.27642
30 10 2 0.0 10.44563 8.07583 4.62115
31 11 1 0.0 11.38513 11.38513 5.92487
32 11 2 0.0 11.60951 11.60961 6.82792
33 11 2 0.0 11.94514 11.94889 5.39121
34 12 1 0.0 11.98821 11.98821 8.5662
35 12 2 0.0 11.1903 12.26079 9.01927
36 12 2 0.0 12.26079 11.1903 9.01927
37 13 1 0.0 9.64929 13.0713 9.64929
38 13 2 0.0 8.97274 13.09949 8.97274
39 13 2 0.0 9.83821 13.99046 9.83821
40 14 1 0.0 7.66071 13.0713 7.66071
41 14 2 0.0 8.03033 12.70938 6.85534
42 14 2 0.0 7.45618 13.98078 7.44336
43 15 1 0.0 8.7438 11.98821 5.32179
44 15 2 0.0 9.65123 11.75854 5.52191
45 15 2 0.0 8.36822 11.18681 4.9572
46 16 1 0.0 13.0713 9.64929 9.64929
47 16 2 0.0 12.71605 9.23914 10.43784
48 16 2 0.0 13.06858 8.95167 8.99389
49 17 1 0.0 13.10629 7.6719 7.64989
50 17 2 0.0 14.01431 7.44697 7.44707
51 17 2 0.0 12.73716 6.86979 8.01947
52 18 1 0.0 12.04561 8.76156 5.30462
53 18 2 0.0 11.82119 9.66486 5.52804
54 18 2 0.0 12.40739 8.39732 6.1125
55 19 1 0.0 5.92487 11.38513 11.38513
56 19 2 0.0 5.68711 10.48536 11.60901
57 19 2 0.0 5.36855 11.92674 11.94495
58 20 1 0.0 5.32179 11.98821 8.7438
59 20 2 0.0 6.12716 12.35783 8.38188
60 20 2 0.0 5.53914 11.78368 9.65328
61 21 1 0.0 8.5662 11.98821 11.98821
62 21 2 0.0 8.92812 12.35783 11.18284
63 21 2 0.0 7.65672 11.78368 11.77086
64 22 1 0.0 5.26439 8.76156 12.00537
65 22 2 0.0 4.56555 8.73596 12.65898
66 22 2 0.0 4.87305 8.37812 11.22048
67 23 1 0.0 7.59104 7.62279 13.05734
68 23 2 0.0 7.87445 6.83584 12.59191
69 23 2 0.0 6.79843 7.90076 12.59828
70 24 1 0.0 9.65672 9.64144 13.0466
71 24 2 0.0 8.95375 8.99183 13.03861
72 24 2 0.0 9.25796 10.43107 12.68094
73 25 1 0.0 11.38513 5.92487 11.38513
74 25 2 0.0 11.62289 6.82464 11.60901
75 25 2 0.0 11.94145 5.38326 11.94495
76 26 1 0.0 11.98821 5.32179 8.7438
77 26 2 0.0 11.77086 5.52632 9.65328
78 26 2 0.0 11.18284 4.95217 8.38188
79 27 1 0.0 8.7438 5.32179 11.98821
80 27 2 0.0 9.66128 5.51484 11.79534
81 27 2 0.0 8.77794 4.64916 12.66838
82 28 1 0.0 12.04561 8.54844 12.00537
83 28 2 0.0 11.25391 8.92365 12.39094
84 28 2 0.0 12.69038 8.57004 12.7125
85 29 1 0.0 15.71263 15.71263 15.71263
86 29 2 0.0 14.79521 15.93879 15.8657
87 29 2 0.0 15.8657 15.93879 14.79521
88 30 1 0.0 16.31571 16.31571 13.0713
89 30 2 0.0 16.71554 15.53098 12.69638
90 30 2 0.0 17.01369 16.97059 13.05766
91 31 1 0.0 13.0713 16.31571 16.31571
92 31 2 0.0 12.71622 16.72167 15.52492
93 31 2 0.0 13.0584 17.01388 16.9704
94 32 1 0.0 16.37311 13.08906 16.33288
95 32 2 0.0 17.03457 13.12668 17.02374
96 32 2 0.0 16.16997 14.00539 16.14497
97 33 1 0.0 10.25237 10.25237 15.71263
98 33 2 0.0 10.10154 10.02603 14.79489
99 33 2 0.0 11.16961 10.02692 15.86779
100 34 1 0.0 13.97679 8.5662 13.97679
101 34 2 0.0 13.70421 9.01927 14.7747
102 34 2 0.0 14.7747 9.01927 13.70421
103 35 1 0.0 12.8937 9.64929 16.31571
104 35 2 0.0 13.26862 10.43402 16.71554
105 35 2 0.0 12.90734 8.99441 17.01369
106 36 1 0.0 8.53121 13.9656 13.98761
107 36 2 0.0 8.89891 13.5635 14.7746
108 36 2 0.0 8.55663 13.27135 13.32912
109 37 1 0.0 9.59189 12.87594 16.33288
110 37 2 0.0 10.39794 13.24711 16.6917
111 37 2 0.0 9.81892 11.97105 16.11872
112 38 1 0.0 15.71263 10.25237 10.25237
113 38 2 0.0 14.79478 10.10734 10.02268
114 38 2 0.0 15.87752 11.16543 10.01705
115 39 1 0.0 16.31571 9.64929 12.8937
116 39 2 0.0 16.11118 9.86664 11.98422
117 39 2 0.0 16.68533 10.45466 13.25562
118 40 1 0.0 16.37311 12.87594 9.63213
119 40 2 0.0 15.57951 13.33442 9.35602
120 40 2 0.0 16.64109 13.32245 10.43528
121 41 1 0.0 14.04646 14.01471 8.58016
122 41 2 0.0 13.35308 13.35482 8.5826
123 41 2 0.0 13.63522 14.7963 8.94925
124 42 1 0.0 10.25237 15.71263 10.25237
125 42 2 0.0 11.15567 15.93656 10.02844
126 42 2 0.0 9.71933 16.27481 9.69019
127 43 1 0.0 9.64929 16.31571 12.8937
128 43 2 0.0 9.27152 15.5136 13.25446
129 43 2 0.0 9.85323 16.09707 11.98439
130 44 1 0.0 12.8937 16.31571 9.64929
131 44 2 0.0 12.9066 17.01388 8.99459
132 44 2 0.0 13.24878 16.72167 10.44008
133 45 1 0.0 7.05763 7.05763 15.71263
134 45 2 0.0 7.26711 7.27823 14.80506
135 45 2 0.0 7.62476 7.62521 16.2346
136 46 1 0.0 3.33321 8.7438 13.97679
137 46 2 0.0 3.60579 8.29073 14.7747
138 46 2 0.0 2.5353 8.29073 13.70421
139 47 1 0.0 4.4163 7.66071 16.31571
140 47 2 0.0 4.05438 6.85534 16.68533
141 47 2 0.0 5.32578 7.44336 16.11118
142 48 1 0.0 8.77879 3.34441 13.98761
143 48 2 0.0 8.33196 3.61954 14.78816
144 48 2 0.0 8.31747 2.55096 13.71586
145 49 1 0.0 7.71811 4.43406 16.33288
146 49 2 0.0 6.91206 4.06289 16.6917
147 49 2 0.0 7.49108 5.33895 16.11872
148 50 1 0.0 1.59737 1.59737 15.71263
149 50 2 0.0 1.43248 2.51042 15.94795
150 50 2 0.0 2.51522 1.45234 15.94232
151 51 1 0.0 0.99429 0.99429 13.0713
152 51 2 0.0 0.62467 1.79966 12.70938
153 51 2 0.0 1.19882 1.21164 13.98078
154 52 1 0.0 4.2387 0.99429 16.31571
155 52 2 0.0 4.59378 0.58833 15.52492
156 52 2 0.0 4.2516 0.29612 16.9704
157 53 1 0.0 0.93689 4.22094 16.33288
158 53 2 0.0 1.74161 4.66336 16.60293
159 53 2 0.0 0.67474 4.66932 15.52885
160 54 1 0.0 7.05763 1.59737 10.25237
161 54 2 0.0 7.59067 1.03519 9.69019
162 54 2 0.0 6.15433 1.37344 10.02844
163 55 1 0.0 7.66071 0.99429 12.8937
164 55 2 0.0 8.33726 0.31774 12.86551
165 55 2 0.0 7.47179 1.18321 11.97454
166 56 1 0.0 4.4163 0.99429 9.64929
167 56 2 0.0 3.95982 1.79483 9.39044
168 56 2 0.0 3.98001 0.71929 10.45568
169 57 1 0.0 3.32578 3.34106 8.5909
170 57 2 0.0 4.00494 4.01486 8.55977
171 57 2 0.0 3.13755 3.14743 7.67258
172 58 1 0.0 1.59737 7.05763 10.25237
173 58 2 0.0 1.3601 6.1576 10.02904
174 58 2 0.0 1.03889 7.59862 9.6941
175 59 1 0.0 0.99429 7.66071 12.8937
176 59 2 0.0 1.18321 7.47179 11.97454
177 59 2 0.0 0.31774 8.33726 12.86551
178 60 1 0.0 0.93689 4.43406 9.63213
179 60 2 0.0 1.73034 4.05962 9.24942
180 60 2 0.0 0.29735 4.42012 8.92008
181 61 1 0.0 7.05763 15.71263 7.05763
182 61 2 0.0 6.14021 15.93879 7.2107
183 61 2 0.0 7.2107 15.93879 6.14021
184 62 1 0.0 7.66071 16.31571 4.4163
185 62 2 0.0 8.35869 16.97059 4.40266
186 62 2 0.0 8.06054 15.53098 4.04138
187 63 1 0.0 4.4163 16.31571 7.66071
188 63 2 0.0 4.03818 15.5301 8.05577
189 63 2 0.0 4.40081 16.96784 8.36122
190 64 1 0.0 8.7438 13.97679 3.33321
191 64 2 0.0 8.7309 13.27862 3.98791
192 64 2 0.0 8.38872 13.57083 2.54242
193 65 1 0.0 3.32578 13.96894 8.7191
194 65 2 0.0 2.53558 13.56369 8.36192
195 65 2 0.0 3.97867 13.269 8.71198
196 66 1 0.0 1.59737 10.25237 7.05763
197 66 2 0.0 2.51469 10.10393 7.28723
198 66 2 0.0 1.43557 11.16569 7.29405
199 67 1 0.0 0.99429 9.64929 4.4163
200 67 2 0.0 1.19882 9.86664 5.32578
201 67 2 0.0 0.62467 10.45466 4.05438
202 68 1 0.0 3.33321 8.5662 3.33321
203 68 2 0.0 3.11586 7.65672 3.12868
204 68 2 0.0 2.52784 8.92812 3.70283
205 69 1 0.0 0.93689 12.87594 7.67788
206 69 2 0.0 0.54043 13.26009 6.89591
207 69 2 0.0 0.24131 12.89787 8.33508
208 70 1 0.0 7.05763 10.25237 1.59737
209 70 2 0.0 7.59067 9.69019 1.03519
210 70 2 0.0 6.15433 10.02844 1.37344
211 71 1 0.0 4.4163 9.64929 0.99429
212 71 2 0.0 4.40266 8.95131 0.33941
213 71 2 0.0 4.04138 9.24946 1.77902
214 72 1 0.0 7.71811 12.87594 0.97713
215 72 2 0.0 8.37957 12.83832 0.28627
216 72 2 0.0 7.51497 11.95961 1.16503
217 73 1 0.0 1.59737 15.71263 1.59737
218 73 2 0.0 1.37344 15.93656 2.50067
219 73 2 0.0 1.03519 16.27481 1.06433
220 74 1 0.0 0.99429 16.31571 4.2387
221 74 2 0.0 1.78375 16.71722 4.6017
222 74 2 0.0 0.34106 17.01522 4.25281
223 75 1 0.0 4.2387 16.31571 0.99429
224 75 2 0.0 3.32922 16.09836 1.19882
225 75 2 0.0 4.60062 15.51034 0.62467
226 76 1 0.0 0.93689 13.08906 0.97713
227 76 2 0.0 1.16392 13.99395 1.19129
228 76 2 0.0 1.74294 12.71789 0.61831
229 77 1 0.0 15.71263 7.05763 7.05763
230 77 2 0.0 15.93656 7.28156 6.15433
231 77 2 0.0 16.27481 7.61981 7.59067
232 78 1 0.0 16.31571 7.66071 4.4163
233 78 2 0.0 16.71554 6.87598 4.04138
234 78 2 0.0 17.01369 8.31559 4.40266
235 79 1 0.0 13.97679 8.7438 3.33321
236 79 2 0.0 14.76322 8.36955 3.73032
237 79 2 0.0 13.32694 8.73773 4.03598
238 80 1 0.0 16.37311 4.43406 7.67788
239 80 2 0.0 16.13596 5.33719 7.4673
240 80 2 0.0 15.57173 4.05295 8.03674
241 81 1 0.0 14.04646 3.29529 8.72984
242 81 2 0.0 13.36439 3.96665 8.74704
243 81 2 0.0 14.22237 3.10822 9.65195
244 82 1 0.0 10.25237 1.59737 7.05763
245 82 2 0.0 11.16979 1.4443 7.28379
246 82 2 0.0 10.0993 2.51479 7.28379
247 83 1 0.0 9.64929 0.99429 4.4163
248 83 2 0.0 9.85382 1.21164 5.32578
249 83 2 0.0 9.27967 1.79966 4.05438
250 84 1 0.0 12.8937 0.99429 7.66071
251 84 2 0.0 13.32906 0.71297 6.856
252 84 2 0.0 13.36996 1.78001 7.92915
253 85 1 0.0 8.5662 3.33321 3.33321
254 85 2 0.0 8.91702 3.71009 2.52629
255 85 2 0.0 7.65537 3.12538 3.12483
256 86 1 0.0 15.71263 1.59737 1.59737
257 86 2 0.0 15.9499 2.4974 1.37404
258 86 2 0.0 16.27111 1.05638 1.0391
259 87 1 0.0 16.31571 0.99429 4.2387
260 87 2 0.0 15.50775 0.62425 4.59437
261 87 2 0.0 16.10454 1.20109 3.32828
262 88 1 0.0 13.0713 0.99429 0.99429
263 88 2 0.0 12.72048 0.61741 1.80121
264 88 2 0.0 13.98213 1.20212 1.20267
265 89 1 0.0 16.37311 4.22094 0.97713
266 89 2 0.0 15.58103 4.59514 0.59135
267 89 2 0.0 17.0149 4.23351 0.26707
268 90 1 0.0 10.25237 7.05763 1.59737
269 90 2 0.0 10.00587 6.14631 1.43937
270 90 2 0.0 10.0289 7.21098 2.5154
271 91 1 0.0 12.8937 7.66071 0.99429
272 91 2 0.0 11.98422 7.45618 1.21164
273 91 2 0.0 13.25562 8.03033 1.79966
274 92 1 0.0 9.59189 4.43406 0.97713
275 92 2 0.0 10.38397 4.05986 0.59135
276 92 2 0.0 8.9501 4.42149 0.26707
277 93 1 0.0 11.38513 2.73013 14.57987
278 93 2 0.0 11.53976 2.95616 15.49706
279 93 2 0.0 10.46925 2.96231 14.4266
280 94 1 0.0 11.98821 3.33321 17.2212
281 94 2 0.0 12.68619 3.98809 17.23484
282 94 2 0.0 12.38804 2.54848 17.59612
283 95 1 0.0 12.04561 0.10656 13.95962
284 95 2 0.0 11.23956 -0.26461 13.6008
285 95 2 0.0 11.81858 1.01145 14.17378
286 96 1 0.0 2.73013 11.38513 14.57987
287 96 2 0.0 2.95629 10.46771 14.4268
288 96 2 0.0 2.95629 11.5382 15.49729
289 97 1 0.0 3.33321 11.98821 17.2212
290 97 2 0.0 3.73304 11.20348 17.59612
291 97 2 0.0 4.03119 12.64309 17.23484
292 98 1 0.0 0.0888 11.98821 13.97679
293 98 2 0.0 -0.26202 12.36509 14.78371
294 98 2 0.0 0.99963 11.78038 14.18517
295 99 1 0.0 14.57987 5.92487 14.57987
296 99 2 0.0 14.35436 6.8274 14.35447
297 99 2 0.0 14.01672 5.38993 14.02047
298 100 1 0.0 13.97679 5.32179 17.2212
299 100 2 0.0 13.60717 6.12716 17.58312
300 100 2 0.0 14.18132 5.53914 16.31172
301 101 1 0.0 17.2212 5.32179 13.97679
302 101 2 0.0 17.58312 6.12716 13.60717
303 101 2 0.0 16.31172 5.53914 14.18132
304 102 1 0.0 5.92487 14.57987 14.57987
305 102 2 0.0 6.84219 14.43143 14.35027
306 102 2 0.0 5.76307 15.49319 14.34345
307 103 1 0.0 5.32179 13.97679 17.2212
308 103 2 0.0 5.53296 14.18359 16.31078
309 103 2 0.0 6.12975 13.60675 17.57687
310 104 1 0.0 5.26439 17.20344 13.95962
311 104 2 0.0 6.05647 17.57764 13.57385
312 104 2 0.0 4.6226 17.21601 13.24956
313 105 1 0.0 2.73013 2.73013 5.92487
314 105 2 0.0 1.81228 2.87516 5.69518
315 105 2 0.0 2.89502 1.81708 5.68955
316 106 1 0.0 0.0888 3.33321 5.32179
317 106 2 0.0 -0.35044 3.60538 6.12754
318 106 2 0.0 -0.36827 2.53489 5.05719
319 107 1 0.0 3.39061 0.10656 5.30462
320 107 2 0.0 3.78707 -0.27759 6.08659
321 107 2 0.0 4.08619 0.08463 4.64742
322 108 1 0.0 2.73013 14.57987 11.38513
323 108 2 0.0 2.95217 14.35267 10.48219
324 108 2 0.0 3.29371 14.01991 11.91903
325 109 1 0.0 0.0888 13.97679 11.98821
326 109 2 0.0 1.00796 14.16571 11.79929
327 109 2 0.0 0.11699 13.30024 12.66476
328 110 1 0.0 3.39061 17.20344 12.00537
329 110 2 0.0 3.16358 16.29855 11.79121
330 110 2 0.0 2.58456 17.57461 12.36419
331 111 1 0.0 14.57987 2.73013 11.38513
332 111 2 0.0 15.49772 2.87516 11.61482
333 111 2 0.0 14.41498 1.81707 11.62045
334 112 1 0.0 17.2212 3.33321 11.98821
335 112 2 0.0 17.57628 3.73917 11.19742
336 112 2 0.0 17.2341 4.03138 12.64291
337 113 1 0.0 13.91939 0.10656 12.00537
338 113 2 0.0 13.2776 0.09399 12.71543
339 113 2 0.0 14.71147 -0.26764 12.39115
340 114 1 0.0 14.57987 14.57987 5.92487
341 114 2 0.0 15.49674 14.35765 5.763
342 114 2 0.0 14.44142 14.36965 6.84838
343 115 1 0.0 17.2212 13.97679 5.32179
344 115 2 0.0 17.59612 14.76152 4.92196
345 115 2 0.0 17.23484 13.32191 4.62381
346 116 1 0.0 13.91939 17.20344 5.30462
347 116 2 0.0 13.25793 17.16582 4.61376
348 116 2 0.0 14.12253 16.28711 5.49253
349 117 1 0.0 5.92487 2.73013 2.73013
350 117 2 0.0 5.36421 3.27049 3.28682
351 117 2 0.0 5.6881 1.82983 2.95291
352 118 1 0.0 5.32179 3.33321 0.0888
353 118 2 0.0 5.52632 3.11586 0.99828
354 118 2 0.0 4.95217 2.52784 -0.27312
355 119 1 0.0 5.26439 0.10656 3.35037
356 119 2 0.0 6.06911 -0.33586 3.62042
357 119 2 0.0 5.00224 -0.34182 2.54634
358 120 1 0.0 2.73013 5.92487 2.73013
359 120 2 0.0 1.82683 5.70085 2.95395
360 120 2 0.0 3.26316 5.35892 3.28854
361 121 1 0.0 3.33321 5.32179 0.0888
362 121 2 0.0 4.00976 4.64524 0.11699
363 121 2 0.0 3.14429 5.51071 1.00796
364 122 1 0.0 0.0888 5.32179 3.33321
365 122 2 0.0 0.0759 4.62362 3.98791
366 122 2 0.0 -0.26628 4.91583 2.54242
367 123 1 0.0 14.57987 11.38513 2.73013
368 123 2 0.0 14.35371 10.46771 2.8832
369 123 2 0.0 14.35371 11.5382 1.81271
370 124 1 0.0 13.97679 11.98821 0.0888
371 124 2 0.0 13.32356 12.68772 0.07469
372 124 2 0.0 14.76625 12.38972 -0.2742
373 125 1 0.0 17.2212 11.98821 3.33321
374 125 2 0.0 16.31037 11.78038 3.12483
375 125 2 0.0 17.57202 12.36509 2.52629
376 126 1 0.0 11.38513 14.57987 2.73013
377 126 2 0.0 10.48234 14.35492 2.95508
378 126 2 0.0 11.91945 14.0183 3.29172
379 127 1 0.0 11.98821 13.97679 0.0888
380 127 2 0.0 12.35783 14.78216 -0.27312
381 127 2 0.0 11.78368 14.19414 0.99828
382 128 1 0.0 12.04561 17.20344 3.35037
383 128 2 0.0 11.23956 17.57461 3.70919
384 128 2 0.0 11.81858 16.29855 3.13621
385 129 1 0.0 0.0 0.0 0.0
386 129 2 0.0 -0.53524 -0.53524 -0.58588
387 129 2 0.0 0.53524 0.53524 -0.58588
388 130 1 0.0 4.32748 4.31665 4.31671
389 130 2 0.0 4.86142 4.85453 4.90137
390 130 2 0.0 3.79093 3.78405 4.9038
391 131 1 0.0 8.655 8.655 0.0
392 131 2 0.0 9.24088 9.19024 -0.53524
393 131 2 0.0 9.24088 8.11976 0.53524
394 132 1 0.0 0.0 8.655 8.655
395 132 2 0.0 0.53524 9.24088 8.11976
396 132 2 0.0 -0.53524 9.24088 9.19024
397 133 1 0.0 8.655 0.0 8.655
398 133 2 0.0 8.11976 -0.53524 8.06912
399 133 2 0.0 9.19024 0.53524 8.06912
400 134 1 0.0 12.98252 12.99335 4.31671
401 134 2 0.0 13.56838 13.52462 4.85592
402 134 2 0.0 13.56837 12.45413 3.78543
403 135 1 0.0 4.32748 12.99335 12.99329
404 135 2 0.0 4.86407 13.52592 13.58037
405 135 2 0.0 3.79358 12.45544 13.57796
406 136 1 0.0 12.98252 4.31665 12.9933
407 136 2 0.0 12.44593 3.72957 13.52588
408 136 2 0.0 13.51643 3.73198 12.4554
409 137 3 0.0 7.536037 8.725279 7.883522
410 137 5 0.0 6.755874 8.888111 8.630095
411 137 5 0.0 7.701354 9.658969 7.341829
412 137 5 0.0 7.180278 7.976081 7.174128
413 137 4 0.0 8.840661 8.251285 8.557385
414 137 5 0.0 9.594966 8.067757 7.787163
415 137 5 0.0 8.655454 7.301765 9.067297
416 137 3 0.0 9.395442 9.270507 9.574419
417 137 5 0.0 10.315797 8.895481 10.02548
418 137 5 0.0 9.616719 10.220533 9.083569
419 137 5 0.0 8.671238 9.449674 10.371836
420 138 3 0.0 4.796249 3.752174 14.175686
421 138 5 0.0 4.002834 3.917927 14.907504
422 138 5 0.0 4.861014 2.682195 13.967143
423 138 5 0.0 5.741561 4.073021 14.616759
424 138 4 0.0 4.512081 4.540672 12.880184
425 138 5 0.0 5.334022 4.381205 12.176704
426 138 5 0.0 4.481259 5.609136 13.111128
427 138 3 0.0 3.18523 4.131286 12.207264
428 138 5 0.0 3.024914 4.71233 11.297406
429 138 5 0.0 3.201584 3.072762 11.939489
430 138 5 0.0 2.343403 4.308494 12.879849
431 139 3 0.0 13.097056 5.328702 3.352298
432 139 5 0.0 13.28788 6.260217 3.889331
433 139 5 0.0 13.985839 5.071696 2.772167
434 139 5 0.0 12.27165 5.49636 2.658252
435 139 4 0.0 12.747888 4.195568 4.339665
436 139 5 0.0 12.533133 3.283396 3.775996
437 139 5 0.0 11.839581 4.464415 4.886107
438 139 3 0.0 13.878793 3.910129 5.349878
439 139 5 0.0 13.589875 3.104213 6.026768
440 139 5 0.0 14.791025 3.610418 4.82983
441 139 5 0.0 14.093067 4.79894 5.946994
442 140 3 0.0 4.224286 12.192065 3.280558
443 140 5 0.0 5.174246 12.385864 2.778006
444 140 5 0.0 4.290286 11.230089 3.793184
445 140 5 0.0 3.443114 12.12285 2.521556
446 140 4 0.0 3.901632 13.319571 4.283269
447 140 5 0.0 2.933827 13.116859 4.750347
448 140 5 0.0 3.812206 14.265337 3.741577
449 140 3 0.0 4.972291 13.467944 5.384461
450 140 5 0.0 4.704459 14.274374 6.069364
451 140 5 0.0 5.06073 12.544386 5.960365
452 140 5 0.0 5.94469 13.700161 4.945187
453 141 3 0.0 12.607816 11.563227 12.959353
454 141 5 0.0 11.908634 11.356772 13.77241
455 141 5 0.0 12.086754 11.431364 12.00875
456 141 5 0.0 13.41755 10.833267 13.010259
457 141 4 0.0 13.16742 12.996381 13.076483
458 141 5 0.0 13.885338 13.167213 12.269446
459 141 5 0.0 13.708343 13.093092 14.021972
460 141 3 0.0 12.068033 14.077137 13.011161
461 141 5 0.0 12.507334 15.072473 13.097624
462 141 5 0.0 11.530807 14.020902 12.062124
463 141 5 0.0 11.352687 13.946311 13.825784
464 142 3 0.0 -0.695196 1.228283 8.564184
465 142 5 0.0 -1.223862 1.19671 7.609169
466 142 5 0.0 -1.430183 1.199129 9.37133
467 142 5 0.0 -0.155906 2.17509 8.626027
468 142 4 0.0 0.285004 0.042338 8.680579
469 142 5 0.0 0.821535 0.113554 9.630823
470 142 5 0.0 1.026554 0.111151 7.879786
471 142 3 0.0 -0.41908 -1.32833 8.600023
472 142 5 0.0 0.309728 -2.136119 8.686464
473 142 5 0.0 -1.145689 -1.434373 9.408255
474 142 5 0.0 -0.939368 -1.436792 7.646094
475 143 3 0.0 7.949165 1.155223 -0.462963
476 143 5 0.0 6.97093 0.768375 -0.756126
477 143 5 0.0 7.808933 1.899266 0.323977
478 143 5 0.0 8.394662 1.650671 -1.32735
479 143 4 0.0 8.859367 0.010643 0.029251
480 143 5 0.0 9.839984 0.419535 0.288287
481 143 5 0.0 9.00727 -0.704217 -0.784997
482 143 3 0.0 8.282388 -0.730857 1.25327
483 143 5 0.0 8.956592 -1.529826 1.566723
484 143 5 0.0 8.152243 -0.04356 2.0918
485 143 5 0.0 7.314239 -1.174451 1.011697
486 144 3 0.0 -0.36975 7.327982 0.100648
487 144 5 0.0 -1.079346 7.224092 -0.722893
488 144 5 0.0 0.521341 6.740345 -0.129956
489 144 5 0.0 -0.827909 6.916232 1.001567
490 144 4 0.0 -0.000782 8.810876 0.314404
491 144 5 0.0 0.686477 8.89007 1.161342
492 144 5 0.0 -0.904106 9.370764 0.572149
493 144 3 0.0 0.652999 9.451719 -0.927708
494 144 5 0.0 0.896748 10.497495 -0.732532
495 144 5 0.0 1.574841 8.927996 -1.189181
496 144 5 0.0 -0.025847 9.411743 -1.782117

Bonds

1 3 1 2
2 3 1 3
3 3 4 5
4 3 4 6
5 3 7 8
6 3 7 9
7 3 10 11
8 3 10 12
9 3 13 14
10 3 13 15
11 3 16 17
12 3 16 18
13 3 19 20
14 3 19 21
15 3 22 23
16 3 22 24
17 3 25 26
18 3 25 27
19 3 28 29
20 3 28 30
21 3 31 32
22 3 31 33
23 3 34 35
24 3 34 36
25 3 37 38
26 3 37 39
27 3 40 41
28 3 40 42
29 3 43 44
30 3 43 45
31 3 46 47
32 3 46 48
33 3 49 50
34 3 49 51
35 3 52 53
36 3 52 54
37 3 55 56
38 3 55 57
39 3 58 59
40 3 58 60
41 3 61 62
42 3 61 63
43 3 64 65
44 3 64 66
45 3 67 68
46 3 67 69
47 3 70 71
48 3 70 72
49 3 73 74
50 3 73 75
51 3 76 77
52 3 76 78
53 3 79 80
54 3 79 81
55 3 82 83
56 3 82 84
57 3 85 86
58 3 85 87
59 3 88 89
60 3 88 90
61 3 91 92
62 3 91 93
63 3 94 95
64 3 94 96
65 3 97 98
66 3 97 99
67 3 100 101
68 3 100 102
69 3 103 104
70 3 103 105
71 3 106 107
72 3 106 108
73 3 109 110
74 3 109 111
75 3 112 113
76 3 112 114
77 3 115 116
78 3 115 117
79 3 118 119
80 3 118 120
81 3 121 122
82 3 121 123
83 3 124 125
84 3 124 126
85 3 127 128
86 3 127 129
87 3 130 131
88 3 130 132
89 3 133 134
90 3 133 135
91 3 136 137
92 3 136 138
93 3 139 140
94 3 139 141
95 3 142 143
96 3 142 144
97 3 145 146
98 3 145 147
99 3 148 149
100 3 148 150
101 3 151 152
102 3 151 153
103 3 154 155
104 3 154 156
105 3 157 158
106 3 157 159
107 3 160 161
108 3 160 162
109 3 163 164
110 3 163 165
111 3 166 167
112 3 166 168
113 3 169 170
114 3 169 171
115 3 172 173
116 3 172 174
117 3 175 176
118 3 175 177
119 3 178 179
120 3 178 180
121 3 181 182
122 3 181 183
123 3 184 185
124 3 184 186
125 3 187 188
126 3 187 189
127 3 190 191
128 3 190 192
129 3 193 194
130 3 193 195
131 3 196 197
132 3 196 198
133 3 199 200
134 3 199 201
135 3 202 203
136 3 202 204
137 3 205 206
138 3 205 207
139 3 208 209
140 3 208 210
141 3 211 212
142 3 211 213
143 3 214 215
144 3 214 216
145 3 217 218
146 3 217 219
147 3 220 221
148 3 220 222
149 3 223 224
150 3 223 225
151 3 226 227
152 3 226 228
153 3 229 230
154 3 229 231
155 3 232 233
156 3 232 234
157 3 235 236
158 3 235 237
159 3 238 239
160 3 238 240
161 3 241 242
162 3 241 243
163 3 244 245
164 3 244 246
165 3 247 248
166 3 247 249
167 3 250 251
168 3 250 252
169 3 253 254
170 3 253 255
171 3 256 257
172 3 256 258
173 3 259 260
174 3 259 261
175 3 262 263
176 3 262 264
177 3 265 266
178 3 265 267
179 3 268 269
180 3 268 270
181 3 271 272
182 3 271 273
183 3 274 275
184 3 274 276
185 3 277 278
186 3 277 279
187 3 280 281
188 3 280 282
189 3 283 284
190 3 283 285
191 3 286 287
192 3 286 288
193 3 289 290
194 3 289 291
195 3 292 293
196 3 292 294
197 3 295 296
198 3 295 297
199 3 298 299
200 3 298 300
201 3 301 302
202 3 301 303
203 3 304 305
204 3 304 306
205 3 307 308
206 3 307 309
207 3 310 311
208 3 310 312
209 3 313 314
210 3 313 315
211 3 316 317
212 3 316 318
213 3 319 320
214 3 319 321
215 3 322 323
216 3 322 324
217 3 325 326
218 3 325 327
219 3 328 329
220 3 328 330
221 3 331 332
222 3 331 333
223 3 334 335
224 3 334 336
225 3 337 338
226 3 337 339
227 3 340 341
228 3 340 342
229 3 343 344
230 3 343 345
231 3 346 347
232 3 346 348
233 3 349 350
234 3 349 351
235 3 352 353
236 3 352 354
237 3 355 356
238 3 355 357
239 3 358 359
240 3 358 360
241 3 361 362
242 3 361 363
243 3 364 365
244 3 364 366
245 3 367 368
246 3 367 369
247 3 370 371
248 3 370 372
249 3 373 374
250 3 373 375
251 3 376 377
252 3 376 378
253 3 379 380
254 3 379 381
255 3 382 383
256 3 382 384
257 3 385 386
258 3 385 387
259 3 388 389
260 3 388 390
261 3 391 392
262 3 391 393
263 3 394 395
264 3 394 396
265 3 397 398
266 3 397 399
267 3 400 401
268 3 400 402
269 3 403 404
270 3 403 405
271 3 406 407
272 3 406 408
273 2 409 410
274 2 409 411
275 2 409 412
276 1 409 413
277 2 413 414
278 2 413 415
279 1 413 416
280 2 416 417
281 2 416 418
282 2 416 419
283 2 420 421
284 2 420 422
285 2 420 423
286 1 420 424
287 2 424 425
288 2 424 426
289 1 424 427
290 2 427 428
291 2 427 429
292 2 427 430
293 2 431 432
294 2 431 433
295 2 431 434
296 1 431 435
297 2 435 436
298 2 435 437
299 1 435 438
300 2 438 439
301 2 438 440
302 2 438 441
303 2 442 443
304 2 442 444
305 2 442 445
306 1 442 446
307 2 446 447
308 2 446 448
309 1 446 449
310 2 449 450
311 2 449 451
312 2 449 452
313 2 453 454
314 2 453 455
315 2 453 456
316 1 453 457
317 2 457 458
318 2 457 459
319 1 457 460
320 2 460 461
321 2 460 462
322 2 460 463
323 2 464 465
324 2 464 466
325 2 464 467
326 1 464 468
327 2 468 469
328 2 468 470
329 1 468 471
330 2 471 472
331 2 471 473
332 2 471 474
333 2 475 476
334 2 475 477
335 2 475 478
336 1 475 479
337 2 479 480
338 2 479 481
339 1 479 482
340 2 482 483
341 2 482 484
342 2 482 485
343 2 486 487
344 2 486 488
345 2 486 489
346 1 486 490
347 2 490 491
348 2 490 492
349 1 490 493
350 2 493 494
351 2 493 495
352 2 493 496

Angles

1 1 409 413 416
2 1 420 424 427
3 1 431 435 438
4 1 442 446 449
5 1 453 457 460
6 1 464 468 471
7 1 475 479 482
8 1 486 490 493
9 2 410 409 411
10 2 410 409 412
11 2 411 409 412
12 2 417 416 418
13 2 417 416 419
14 2 418 416 419
15 2 421 420 422
16 2 421 420 423
17 2 422 420 423
18 2 428 427 429
19 2 428 427 430
20 2 429 427 430
21 2 432 431 433
22 2 432 431 434
23 2 433 431 434
24 2 439 438 440
25 2 439 438 441
26 2 440 438 441
27 2 443 442 444
28 2 443 442 445
29 2 444 442 445
30 2 450 449 451
31 2 450 449 452
32 2 451 449 452
33 2 454 453 455
34 2 454 453 456
35 2 455 453 456
36 2 461 460 462
37 2 461 460 463
38 2 462 460 463
39 2 465 464 466
40 2 465 464 467
41 2 466 464 467
42 2 472 471 473
43 2 472 471 474
44 2 473 471 474
45 2 476 475 477
46 2 476 475 478
47 2 477 475 478
48 2 483 482 484
49 2 483 482 485
50 2 484 482 485
51 2 487 486 488
52 2 487 486 489
53 2 488 486 489
54 2 494 493 495
55 2 494 493 496
56 2 495 493 496
57 2 414 413 415
58 2 425 424 426
59 2 436 435 437
60 2 447 446 448
61 2 458 457 459
62 2 469 468 470
63 2 480 479 481
64 2 491 490 492
65 3 409 413 414
66 3 409 413 415
67 3 414 413 416
68 3 415 413 416
69 3 420 424 425
70 3 420 424 426
71 3 425 424 427
72 3 426 424 427
73 3 431 435 436
74 3 431 435 437
75 3 436 435 438
76 3 437 435 438
77 3 442 446 447
78 3 442 446 448
79 3 447 446 449
80 3 448 446 449
81 3 453 457 458
82 3 453 457 459
83 3 458 457 460
84 3 459 457 460
85 3 464 468 469
86 3 464 468 470
87 3 469 468 471
88 3 470 468 471
89 3 475 479 480
90 3 475 479 481
91 3 480 479 482
92 3 481 479 482
93 3 486 490 491
94 3 486 490 492
95 3 491 490 493
96 3 492 490 493
97 3 410 409 413
98 3 411 409 413
99 3 412 409 413
100 3 413 416 417
101 3 413 416 418
102 3 413 416 419
103 3 421 420 424
104 3 422 420 424
105 3 423 420 424
106 3 424 427 428
107 3 424 427 429
108 3 424 427 430
109 3 432 431 435
110 3 433 431 435
111 3 434 431 435
112 3 435 438 439
113 3 435 438 440
114 3 435 438 441
115 3 443 442 446
116 3 444 442 446
117 3 445 442 446
118 3 446 449 450
119 3 446 449 451
120 3 446 449 452
121 3 454 453 457
122 3 455 453 457
123 3 456 453 457
124 3 457 460 461
125 3 457 460 462
126 3 457 460 463
127 3 465 464 468
128 3 466 464 468
129 3 467 464 468
130 3 468 471 472
131 3 468 471 473
132 3 468 471 474
133 3 476 475 479
134 3 477 475 479
135 3 478 475 479
136 3 479 482 483
137 3 479 482 484
138 3 479 482 485
139 3 487 486 490
140 3 488 486 490
141 3 489 486 490
142 3 490 493 494
143 3 490 493 495
144 3 490 493 496
145 4 2 1 3
146 4 5 4 6
147 4 8 7 9
148 4 11 10 12
149 4 14 13 15
150 4 17 16 18
151 4 20 19 21
152 4 23 22 24
153 4 26 25 27
154 4 29 28 30
155 4 32 31 33
156 4 35 34 36
157 4 38 37 39
158 4 41 40 42
159 4 44 43 45
160 4 47 46 48
161 4 50 49 51
162 4 53 52 54
163 4 56 55 57
164 4 59 58 60
165 4 62 61 63
166 4 65 64 66
167 4 68 67 69
168 4 71 70 72
169 4 74 73 75
170 4 77 76 78
171 4 80 79 81
172 4 83 82 84
173 4 86 85 87
174 4 89 88 90
175 4 92 91 93
176 4 95 94 96
177 4 98 97 99
178 4 101 100 102
179 4 104 103 105
180 4 107 106 108
181 4 110 109 111
182 4 113 112 114
183 4 116 115 117
184 4 119 118 120
185 4 122 121 123
186 4 125 124 126
187 4 128 127 129
188 4 131 130 132
189 4 134 133 135
190 4 137 136 138
191 4 140 139 141
192 4 143 142 144
193 4 146 145 147
194 4 149 148 150
195 4 152 151 153
196 4 155 154 156
197 4 158 157 159
198 4 161 160 162
199 4 164 163 165
200 4 167 166 168
201 4 170 169 171
202 4 173 172 174
203 4 176 175 177
204 4 179 178 180
205 4 182 181 183
206 4 185 184 186
207 4 188 187 189
208 4 191 190 192
209 4 194 193 195
210 4 197 196 198
211 4 200 199 201
212 4 203 202 204
213 4 206 205 207
214 4 209 208 210
215 4 212 211 213
216 4 215 214 216
217 4 218 217 219
218 4 221 220 222
219 4 224 223 225
220 4 227 226 228
221 4 230 229 231
222 4 233 232 234
223 4 236 235 237
224 4 239 238 240
225 4 242 241 243
226 4 245 244 246
227 4 248 247 249
228 4 251 250 252
229 4 254 253 255
230 4 257 256 258
231 4 260 259 261
232 4 263 262 264
233 4 266 265 267
234 4 269 268 270
235 4 272 271 273
236 4 275 274 276
237 4 278 277 279
238 4 281 280 282
239 4 284 283 285
240 4 287 286 288
241 4 290 289 291
242 4 293 292 294
243 4 296 295 297
244 4 299 298 300
245 4 302 301 303
246 4 305 304 306
247 4 308 307 309
248 4 311 310 312
249 4 314 313 315
250 4 317 316 318
251 4 320 319 321
252 4 323 322 324
253 4 326 325 327
254 4 329 328 330
255 4 332 331 333
256 4 335 334 336
257 4 338 337 339
258 4 341 340 342
259 4 344 343 345
260 4 347 346 348
261 4 350 349 351
262 4 353 352 354
263 4 356 355 357
264 4 359 358 360
265 4 362 361 363
266 4 365 364 366
267 4 368 367 369
268 4 371 370 372
269 4 374 373 375
270 4 377 376 378
271 4 380 379 381
272 4 383 382 384
273 4 386 385 387
274 4 389 388 390
275 4 392 391 393
276 4 395 394 396
277 4 398 397 399
278 4 401 400 402
279 4 404 403 405
280 4 407 406 408

Dihedrals

1 1 409 413 416 417
2 1 409 413 416 418
3 1 409 413 416 419
4 1 410 409 413 416
5 1 411 409 413 416
6 1 412 409 413 416
7 1 420 424 427 428
8 1 420 424 427 429
9 1 420 424 427 430
10 1 421 420 424 427
11 1 422 420 424 427
12 1 423 420 424 427
13 1 431 435 438 439
14 1 431 435 438 440
15 1 431 435 438 441
16 1 432 431 435 438
17 1 433 431 435 438
18 1 434 431 435 438
19 1 442 446 449 450
20 1 442 446 449 451
21 1 442 446 449 452
22 1 443 442 446 449
23 1 444 442 446 449
24 1 445 442 446 449
25 1 453 457 460 461
26 1 453 457 460 462
27 1 453 457 460 463
28 1 454 453 457 460
29 1 455 453 457 460
30 1 456 453 457 460
31 1 464 468 471 472
32 1 464 468 471 473
33 1 464 468 471 474
34 1 465 464 468 471
35 1 466 464 468 471
36 1 467 464 468 471
37 1 475 479 482 483
38 1 475 479 482 484
39 1 475 479 482 485
40 1 476 475 479 482
41 1 477 475 479 482
42 1 478 475 479 482
43 1 486 490 493 494
44 1 486 490 493 495
45 1 486 490 493 496
46 1 487 486 490 493
47 1 488 486 490 493
48 1 489 486 490 493