LAMMPS Description

     576  atoms
     416  bonds
     376  angles
     144  dihedrals
     0  impropers

     6  atom types
     3  bond types
     4  angle types
     2  dihedral types

  -0.1731 17.4831 xlo xhi
  -0.1731 17.4831 ylo yhi
  -0.1731 17.4831 zlo zhi

Masses

1 15.999  # 65
2 1.008  # 66
3 12.011  # 80
4 12.011  # 81
5 12.011  # 83
6 1.008  # 85

Atoms  # full

1 1 1 0.0 5.92487 5.92487 5.92487
2 1 2 0.0 5.75998 6.83792 5.68955
3 1 2 0.0 6.84272 5.77984 5.69518
4 2 1 0.0 5.32179 5.32179 8.5662
5 2 2 0.0 5.53914 5.52632 7.65672
6 2 2 0.0 6.12716 4.95217 8.92812
7 3 1 0.0 7.66071 4.2387 9.64929
8 3 2 0.0 8.03033 4.60062 10.45466
9 3 2 0.0 7.45618 3.32922 9.86664
10 4 1 0.0 9.64929 4.2387 7.66071
11 4 2 0.0 8.95131 4.25234 8.31559
12 4 2 0.0 9.24946 4.61362 6.87598
13 5 1 0.0 8.5662 5.32179 5.32179
14 5 2 0.0 8.58169 4.66966 4.62128
15 5 2 0.0 8.94432 6.1074 4.92673
16 6 1 0.0 4.2387 7.66071 9.64929
17 6 2 0.0 4.60062 6.85534 9.27967
18 6 2 0.0 3.32922 7.44336 9.85382
19 7 1 0.0 4.20371 9.63809 7.64989
20 7 2 0.0 4.22695 8.98285 8.34728
21 7 2 0.0 4.58643 10.42187 8.04415
22 8 1 0.0 5.26439 8.54844 5.30462
23 8 2 0.0 4.8662 8.92706 6.08841
24 8 2 0.0 4.56904 8.57135 4.6472
25 9 1 0.0 7.59104 9.68721 4.25266
26 9 2 0.0 6.78722 9.29891 4.59812
27 9 2 0.0 7.39129 9.87671 3.33592
28 10 1 0.0 9.65672 7.66856 4.2634
29 10 2 0.0 9.00013 8.36495 4.27642
30 10 2 0.0 10.44563 8.07583 4.62115
31 11 1 0.0 11.38513 11.38513 5.92487
32 11 2 0.0 11.60951 11.60961 6.82792
33 11 2 0.0 11.94514 11.94889 5.39121
34 12 1 0.0 11.98821 11.98821 8.5662
35 12 2 0.0 11.1903 12.26079 9.01927
36 12 2 0.0 12.26079 11.1903 9.01927
37 13 1 0.0 9.64929 13.0713 9.64929
38 13 2 0.0 8.97274 13.09949 8.97274
39 13 2 0.0 9.83821 13.99046 9.83821
40 14 1 0.0 7.66071 13.0713 7.66071
41 14 2 0.0 8.03033 12.70938 6.85534
42 14 2 0.0 7.45618 13.98078 7.44336
43 15 1 0.0 8.7438 11.98821 5.32179
44 15 2 0.0 9.65123 11.75854 5.52191
45 15 2 0.0 8.36822 11.18681 4.9572
46 16 1 0.0 13.0713 9.64929 9.64929
47 16 2 0.0 12.71605 9.23914 10.43784
48 16 2 0.0 13.06858 8.95167 8.99389
49 17 1 0.0 13.10629 7.6719 7.64989
50 17 2 0.0 14.01431 7.44697 7.44707
51 17 2 0.0 12.73716 6.86979 8.01947
52 18 1 0.0 12.04561 8.76156 5.30462
53 18 2 0.0 11.82119 9.66486 5.52804
54 18 2 0.0 12.40739 8.39732 6.1125
55 19 1 0.0 5.92487 11.38513 11.38513
56 19 2 0.0 5.68711 10.48536 11.60901
57 19 2 0.0 5.36855 11.92674 11.94495
58 20 1 0.0 5.32179 11.98821 8.7438
59 20 2 0.0 6.12716 12.35783 8.38188
60 20 2 0.0 5.53914 11.78368 9.65328
61 21 1 0.0 8.5662 11.98821 11.98821
62 21 2 0.0 8.92812 12.35783 11.18284
63 21 2 0.0 7.65672 11.78368 11.77086
64 22 1 0.0 5.26439 8.76156 12.00537
65 22 2 0.0 4.56555 8.73596 12.65898
66 22 2 0.0 4.87305 8.37812 11.22048
67 23 1 0.0 7.59104 7.62279 13.05734
68 23 2 0.0 7.87445 6.83584 12.59191
69 23 2 0.0 6.79843 7.90076 12.59828
70 24 1 0.0 9.65672 9.64144 13.0466
71 24 2 0.0 8.95375 8.99183 13.03861
72 24 2 0.0 9.25796 10.43107 12.68094
73 25 1 0.0 11.38513 5.92487 11.38513
74 25 2 0.0 11.62289 6.82464 11.60901
75 25 2 0.0 11.94145 5.38326 11.94495
76 26 1 0.0 11.98821 5.32179 8.7438
77 26 2 0.0 11.77086 5.52632 9.65328
78 26 2 0.0 11.18284 4.95217 8.38188
79 27 1 0.0 8.7438 5.32179 11.98821
80 27 2 0.0 9.66128 5.51484 11.79534
81 27 2 0.0 8.77794 4.64916 12.66838
82 28 1 0.0 12.04561 8.54844 12.00537
83 28 2 0.0 11.25391 8.92365 12.39094
84 28 2 0.0 12.69038 8.57004 12.7125
85 29 1 0.0 15.71263 15.71263 15.71263
86 29 2 0.0 14.79521 15.93879 15.8657
87 29 2 0.0 15.8657 15.93879 14.79521
88 30 1 0.0 16.31571 16.31571 13.0713
89 30 2 0.0 16.71554 15.53098 12.69638
90 30 2 0.0 17.01369 16.97059 13.05766
91 31 1 0.0 13.0713 16.31571 16.31571
92 31 2 0.0 12.71622 16.72167 15.52492
93 31 2 0.0 13.0584 17.01388 16.9704
94 32 1 0.0 16.37311 13.08906 16.33288
95 32 2 0.0 17.03457 13.12668 17.02374
96 32 2 0.0 16.16997 14.00539 16.14497
97 33 1 0.0 10.25237 10.25237 15.71263
98 33 2 0.0 10.10154 10.02603 14.79489
99 33 2 0.0 11.16961 10.02692 15.86779
100 34 1 0.0 13.97679 8.5662 13.97679
101 34 2 0.0 13.70421 9.01927 14.7747
102 34 2 0.0 14.7747 9.01927 13.70421
103 35 1 0.0 12.8937 9.64929 16.31571
104 35 2 0.0 13.26862 10.43402 16.71554
105 35 2 0.0 12.90734 8.99441 17.01369
106 36 1 0.0 8.53121 13.9656 13.98761
107 36 2 0.0 8.89891 13.5635 14.7746
108 36 2 0.0 8.55663 13.27135 13.32912
109 37 1 0.0 9.59189 12.87594 16.33288
110 37 2 0.0 10.39794 13.24711 16.6917
111 37 2 0.0 9.81892 11.97105 16.11872
112 38 1 0.0 15.71263 10.25237 10.25237
113 38 2 0.0 14.79478 10.10734 10.02268
114 38 2 0.0 15.87752 11.16543 10.01705
115 39 1 0.0 16.31571 9.64929 12.8937
116 39 2 0.0 16.11118 9.86664 11.98422
117 39 2 0.0 16.68533 10.45466 13.25562
118 40 1 0.0 16.37311 12.87594 9.63213
119 40 2 0.0 15.57951 13.33442 9.35602
120 40 2 0.0 16.64109 13.32245 10.43528
121 41 1 0.0 14.04646 14.01471 8.58016
122 41 2 0.0 13.35308 13.35482 8.5826
123 41 2 0.0 13.63522 14.7963 8.94925
124 42 1 0.0 10.25237 15.71263 10.25237
125 42 2 0.0 11.15567 15.93656 10.02844
126 42 2 0.0 9.71933 16.27481 9.69019
127 43 1 0.0 9.64929 16.31571 12.8937
128 43 2 0.0 9.27152 15.5136 13.25446
129 43 2 0.0 9.85323 16.09707 11.98439
130 44 1 0.0 12.8937 16.31571 9.64929
131 44 2 0.0 12.9066 17.01388 8.99459
132 44 2 0.0 13.24878 16.72167 10.44008
133 45 1 0.0 7.05763 7.05763 15.71263
134 45 2 0.0 7.26711 7.27823 14.80506
135 45 2 0.0 7.62476 7.62521 16.2346
136 46 1 0.0 3.33321 8.7438 13.97679
137 46 2 0.0 3.60579 8.29073 14.7747
138 46 2 0.0 2.5353 8.29073 13.70421
139 47 1 0.0 4.4163 7.66071 16.31571
140 47 2 0.0 4.05438 6.85534 16.68533
141 47 2 0.0 5.32578 7.44336 16.11118
142 48 1 0.0 8.77879 3.34441 13.98761
143 48 2 0.0 8.33196 3.61954 14.78816
144 48 2 0.0 8.31747 2.55096 13.71586
145 49 1 0.0 7.71811 4.43406 16.33288
146 49 2 0.0 6.91206 4.06289 16.6917
147 49 2 0.0 7.49108 5.33895 16.11872
148 50 1 0.0 1.59737 1.59737 15.71263
149 50 2 0.0 1.43248 2.51042 15.94795
150 50 2 0.0 2.51522 1.45234 15.94232
151 51 1 0.0 0.99429 0.99429 13.0713
152 51 2 0.0 0.62467 1.79966 12.70938
153 51 2 0.0 1.19882 1.21164 13.98078
154 52 1 0.0 4.2387 0.99429 16.31571
155 52 2 0.0 4.59378 0.58833 15.52492
156 52 2 0.0 4.2516 0.29612 16.9704
157 53 1 0.0 0.93689 4.22094 16.33288
158 53 2 0.0 1.74161 4.66336 16.60293
159 53 2 0.0 0.67474 4.66932 15.52885
160 54 1 0.0 7.05763 1.59737 10.25237
161 54 2 0.0 7.59067 1.03519 9.69019
162 54 2 0.0 6.15433 1.37344 10.02844
163 55 1 0.0 7.66071 0.99429 12.8937
164 55 2 0.0 8.33726 0.31774 12.86551
165 55 2 0.0 7.47179 1.18321 11.97454
166 56 1 0.0 4.4163 0.99429 9.64929
167 56 2 0.0 3.95982 1.79483 9.39044
168 56 2 0.0 3.98001 0.71929 10.45568
169 57 1 0.0 3.32578 3.34106 8.5909
170 57 2 0.0 4.00494 4.01486 8.55977
171 57 2 0.0 3.13755 3.14743 7.67258
172 58 1 0.0 1.59737 7.05763 10.25237
173 58 2 0.0 1.3601 6.1576 10.02904
174 58 2 0.0 1.03889 7.59862 9.6941
175 59 1 0.0 0.99429 7.66071 12.8937
176 59 2 0.0 1.18321 7.47179 11.97454
177 59 2 0.0 0.31774 8.33726 12.86551
178 60 1 0.0 0.93689 4.43406 9.63213
179 60 2 0.0 1.73034 4.05962 9.24942
180 60 2 0.0 0.29735 4.42012 8.92008
181 61 1 0.0 7.05763 15.71263 7.05763
182 61 2 0.0 6.14021 15.93879 7.2107
183 61 2 0.0 7.2107 15.93879 6.14021
184 62 1 0.0 7.66071 16.31571 4.4163
185 62 2 0.0 8.35869 16.97059 4.40266
186 62 2 0.0 8.06054 15.53098 4.04138
187 63 1 0.0 4.4163 16.31571 7.66071
188 63 2 0.0 4.03818 15.5301 8.05577
189 63 2 0.0 4.40081 16.96784 8.36122
190 64 1 0.0 8.7438 13.97679 3.33321
191 64 2 0.0 8.7309 13.27862 3.98791
192 64 2 0.0 8.38872 13.57083 2.54242
193 65 1 0.0 3.32578 13.96894 8.7191
194 65 2 0.0 2.53558 13.56369 8.36192
195 65 2 0.0 3.97867 13.269 8.71198
196 66 1 0.0 1.59737 10.25237 7.05763
197 66 2 0.0 2.51469 10.10393 7.28723
198 66 2 0.0 1.43557 11.16569 7.29405
199 67 1 0.0 0.99429 9.64929 4.4163
200 67 2 0.0 1.19882 9.86664 5.32578
201 67 2 0.0 0.62467 10.45466 4.05438
202 68 1 0.0 3.33321 8.5662 3.33321
203 68 2 0.0 3.11586 7.65672 3.12868
204 68 2 0.0 2.52784 8.92812 3.70283
205 69 1 0.0 0.93689 12.87594 7.67788
206 69 2 0.0 0.54043 13.26009 6.89591
207 69 2 0.0 0.24131 12.89787 8.33508
208 70 1 0.0 7.05763 10.25237 1.59737
209 70 2 0.0 7.59067 9.69019 1.03519
210 70 2 0.0 6.15433 10.02844 1.37344
211 71 1 0.0 4.4163 9.64929 0.99429
212 71 2 0.0 4.40266 8.95131 0.33941
213 71 2 0.0 4.04138 9.24946 1.77902
214 72 1 0.0 7.71811 12.87594 0.97713
215 72 2 0.0 8.37957 12.83832 0.28627
216 72 2 0.0 7.51497 11.95961 1.16503
217 73 1 0.0 1.59737 15.71263 1.59737
218 73 2 0.0 1.37344 15.93656 2.50067
219 73 2 0.0 1.03519 16.27481 1.06433
220 74 1 0.0 0.99429 16.31571 4.2387
221 74 2 0.0 1.78375 16.71722 4.6017
222 74 2 0.0 0.34106 17.01522 4.25281
223 75 1 0.0 4.2387 16.31571 0.99429
224 75 2 0.0 3.32922 16.09836 1.19882
225 75 2 0.0 4.60062 15.51034 0.62467
226 76 1 0.0 0.93689 13.08906 0.97713
227 76 2 0.0 1.16392 13.99395 1.19129
228 76 2 0.0 1.74294 12.71789 0.61831
229 77 1 0.0 15.71263 7.05763 7.05763
230 77 2 0.0 15.93656 7.28156 6.15433
231 77 2 0.0 16.27481 7.61981 7.59067
232 78 1 0.0 16.31571 7.66071 4.4163
233 78 2 0.0 16.71554 6.87598 4.04138
234 78 2 0.0 17.01369 8.31559 4.40266
235 79 1 0.0 13.97679 8.7438 3.33321
236 79 2 0.0 14.76322 8.36955 3.73032
237 79 2 0.0 13.32694 8.73773 4.03598
238 80 1 0.0 16.37311 4.43406 7.67788
239 80 2 0.0 16.13596 5.33719 7.4673
240 80 2 0.0 15.57173 4.05295 8.03674
241 81 1 0.0 14.04646 3.29529 8.72984
242 81 2 0.0 13.36439 3.96665 8.74704
243 81 2 0.0 14.22237 3.10822 9.65195
244 82 1 0.0 10.25237 1.59737 7.05763
245 82 2 0.0 11.16979 1.4443 7.28379
246 82 2 0.0 10.0993 2.51479 7.28379
247 83 1 0.0 9.64929 0.99429 4.4163
248 83 2 0.0 9.85382 1.21164 5.32578
249 83 2 0.0 9.27967 1.79966 4.05438
250 84 1 0.0 12.8937 0.99429 7.66071
251 84 2 0.0 13.32906 0.71297 6.856
252 84 2 0.0 13.36996 1.78001 7.92915
253 85 1 0.0 8.5662 3.33321 3.33321
254 85 2 0.0 8.91702 3.71009 2.52629
255 85 2 0.0 7.65537 3.12538 3.12483
256 86 1 0.0 15.71263 1.59737 1.59737
257 86 2 0.0 15.9499 2.4974 1.37404
258 86 2 0.0 16.27111 1.05638 1.0391
259 87 1 0.0 16.31571 0.99429 4.2387
260 87 2 0.0 15.50775 0.62425 4.59437
261 87 2 0.0 16.10454 1.20109 3.32828
262 88 1 0.0 13.0713 0.99429 0.99429
263 88 2 0.0 12.72048 0.61741 1.80121
264 88 2 0.0 13.98213 1.20212 1.20267
265 89 1 0.0 16.37311 4.22094 0.97713
266 89 2 0.0 15.58103 4.59514 0.59135
267 89 2 0.0 17.0149 4.23351 0.26707
268 90 1 0.0 10.25237 7.05763 1.59737
269 90 2 0.0 10.00587 6.14631 1.43937
270 90 2 0.0 10.0289 7.21098 2.5154
271 91 1 0.0 12.8937 7.66071 0.99429
272 91 2 0.0 11.98422 7.45618 1.21164
273 91 2 0.0 13.25562 8.03033 1.79966
274 92 1 0.0 9.59189 4.43406 0.97713
275 92 2 0.0 10.38397 4.05986 0.59135
276 92 2 0.0 8.9501 4.42149 0.26707
277 93 1 0.0 11.38513 2.73013 14.57987
278 93 2 0.0 11.53976 2.95616 15.49706
279 93 2 0.0 10.46925 2.96231 14.4266
280 94 1 0.0 11.98821 3.33321 17.2212
281 94 2 0.0 12.68619 3.98809 17.23484
282 94 2 0.0 12.38804 2.54848 17.59612
283 95 1 0.0 12.04561 0.10656 13.95962
284 95 2 0.0 11.23956 -0.26461 13.6008
285 95 2 0.0 11.81858 1.01145 14.17378
286 96 1 0.0 2.73013 11.38513 14.57987
287 96 2 0.0 2.95629 10.46771 14.4268
288 96 2 0.0 2.95629 11.5382 15.49729
289 97 1 0.0 3.33321 11.98821 17.2212
290 97 2 0.0 3.73304 11.20348 17.59612
291 97 2 0.0 4.03119 12.64309 17.23484
292 98 1 0.0 0.0888 11.98821 13.97679
293 98 2 0.0 -0.26202 12.36509 14.78371
294 98 2 0.0 0.99963 11.78038 14.18517
295 99 1 0.0 14.57987 5.92487 14.57987
296 99 2 0.0 14.35436 6.8274 14.35447
297 99 2 0.0 14.01672 5.38993 14.02047
298 100 1 0.0 13.97679 5.32179 17.2212
299 100 2 0.0 13.60717 6.12716 17.58312
300 100 2 0.0 14.18132 5.53914 16.31172
301 101 1 0.0 17.2212 5.32179 13.97679
302 101 2 0.0 17.58312 6.12716 13.60717
303 101 2 0.0 16.31172 5.53914 14.18132
304 102 1 0.0 5.92487 14.57987 14.57987
305 102 2 0.0 6.84219 14.43143 14.35027
306 102 2 0.0 5.76307 15.49319 14.34345
307 103 1 0.0 5.32179 13.97679 17.2212
308 103 2 0.0 5.53296 14.18359 16.31078
309 103 2 0.0 6.12975 13.60675 17.57687
310 104 1 0.0 5.26439 17.20344 13.95962
311 104 2 0.0 6.05647 17.57764 13.57385
312 104 2 0.0 4.6226 17.21601 13.24956
313 105 1 0.0 2.73013 2.73013 5.92487
314 105 2 0.0 1.81228 2.87516 5.69518
315 105 2 0.0 2.89502 1.81708 5.68955
316 106 1 0.0 0.0888 3.33321 5.32179
317 106 2 0.0 -0.35044 3.60538 6.12754
318 106 2 0.0 -0.36827 2.53489 5.05719
319 107 1 0.0 3.39061 0.10656 5.30462
320 107 2 0.0 3.78707 -0.27759 6.08659
321 107 2 0.0 4.08619 0.08463 4.64742
322 108 1 0.0 2.73013 14.57987 11.38513
323 108 2 0.0 2.95217 14.35267 10.48219
324 108 2 0.0 3.29371 14.01991 11.91903
325 109 1 0.0 0.0888 13.97679 11.98821
326 109 2 0.0 1.00796 14.16571 11.79929
327 109 2 0.0 0.11699 13.30024 12.66476
328 110 1 0.0 3.39061 17.20344 12.00537
329 110 2 0.0 3.16358 16.29855 11.79121
330 110 2 0.0 2.58456 17.57461 12.36419
331 111 1 0.0 14.57987 2.73013 11.38513
332 111 2 0.0 15.49772 2.87516 11.61482
333 111 2 0.0 14.41498 1.81707 11.62045
334 112 1 0.0 17.2212 3.33321 11.98821
335 112 2 0.0 17.57628 3.73917 11.19742
336 112 2 0.0 17.2341 4.03138 12.64291
337 113 1 0.0 13.91939 0.10656 12.00537
338 113 2 0.0 13.2776 0.09399 12.71543
339 113 2 0.0 14.71147 -0.26764 12.39115
340 114 1 0.0 14.57987 14.57987 5.92487
341 114 2 0.0 15.49674 14.35765 5.763
342 114 2 0.0 14.44142 14.36965 6.84838
343 115 1 0.0 17.2212 13.97679 5.32179
344 115 2 0.0 17.59612 14.76152 4.92196
345 115 2 0.0 17.23484 13.32191 4.62381
346 116 1 0.0 13.91939 17.20344 5.30462
347 116 2 0.0 13.25793 17.16582 4.61376
348 116 2 0.0 14.12253 16.28711 5.49253
349 117 1 0.0 5.92487 2.73013 2.73013
350 117 2 0.0 5.36421 3.27049 3.28682
351 117 2 0.0 5.6881 1.82983 2.95291
352 118 1 0.0 5.32179 3.33321 0.0888
353 118 2 0.0 5.52632 3.11586 0.99828
354 118 2 0.0 4.95217 2.52784 -0.27312
355 119 1 0.0 5.26439 0.10656 3.35037
356 119 2 0.0 6.06911 -0.33586 3.62042
357 119 2 0.0 5.00224 -0.34182 2.54634
358 120 1 0.0 2.73013 5.92487 2.73013
359 120 2 0.0 1.82683 5.70085 2.95395
360 120 2 0.0 3.26316 5.35892 3.28854
361 121 1 0.0 3.33321 5.32179 0.0888
362 121 2 0.0 4.00976 4.64524 0.11699
363 121 2 0.0 3.14429 5.51071 1.00796
364 122 1 0.0 0.0888 5.32179 3.33321
365 122 2 0.0 0.0759 4.62362 3.98791
366 122 2 0.0 -0.26628 4.91583 2.54242
367 123 1 0.0 14.57987 11.38513 2.73013
368 123 2 0.0 14.35371 10.46771 2.8832
369 123 2 0.0 14.35371 11.5382 1.81271
370 124 1 0.0 13.97679 11.98821 0.0888
371 124 2 0.0 13.32356 12.68772 0.07469
372 124 2 0.0 14.76625 12.38972 -0.2742
373 125 1 0.0 17.2212 11.98821 3.33321
374 125 2 0.0 16.31037 11.78038 3.12483
375 125 2 0.0 17.57202 12.36509 2.52629
376 126 1 0.0 11.38513 14.57987 2.73013
377 126 2 0.0 10.48234 14.35492 2.95508
378 126 2 0.0 11.91945 14.0183 3.29172
379 127 1 0.0 11.98821 13.97679 0.0888
380 127 2 0.0 12.35783 14.78216 -0.27312
381 127 2 0.0 11.78368 14.19414 0.99828
382 128 1 0.0 12.04561 17.20344 3.35037
383 128 2 0.0 11.23956 17.57461 3.70919
384 128 2 0.0 11.81858 16.29855 3.13621
385 129 1 0.0 0.0 0.0 0.0
386 129 2 0.0 -0.53524 -0.53524 -0.58588
387 129 2 0.0 0.53524 0.53524 -0.58588
388 130 1 0.0 4.32748 4.31665 4.31671
389 130 2 0.0 4.86142 4.85453 4.90137
390 130 2 0.0 3.79093 3.78405 4.9038
391 131 1 0.0 8.655 8.655 0.0
392 131 2 0.0 9.24088 9.19024 -0.53524
393 131 2 0.0 9.24088 8.11976 0.53524
394 132 1 0.0 0.0 8.655 8.655
395 132 2 0.0 0.53524 9.24088 8.11976
396 132 2 0.0 -0.53524 9.24088 9.19024
397 133 1 0.0 8.655 0.0 8.655
398 133 2 0.0 8.11976 -0.53524 8.06912
399 133 2 0.0 9.19024 0.53524 8.06912
400 134 1 0.0 12.98252 12.99335 4.31671
401 134 2 0.0 13.56838 13.52462 4.85592
402 134 2 0.0 13.56837 12.45413 3.78543
403 135 1 0.0 4.32748 12.99335 12.99329
404 135 2 0.0 4.86407 13.52592 13.58037
405 135 2 0.0 3.79358 12.45544 13.57796
406 136 1 0.0 12.98252 4.31665 12.9933
407 136 2 0.0 12.44593 3.72957 13.52588
408 136 2 0.0 13.51643 3.73198 12.4554
409 137 3 0.0 8.470958 9.29003 9.819766
410 137 6 0.0 8.127505 10.239351 9.403391
411 137 6 0.0 7.650005 8.836723 10.379308
412 137 6 0.0 9.286671 9.496028 10.51495
413 137 4 0.0 8.94734 8.346011 8.69607
414 137 6 0.0 9.312554 7.416113 9.140827
415 137 6 0.0 9.78704 8.809886 8.17107
416 137 3 0.0 7.835794 8.016043 7.677965
417 137 6 0.0 8.215611 7.347699 6.903233
418 137 6 0.0 6.995804 7.524391 8.173081
419 137 6 0.0 7.473304 8.927018 7.197164
420 138 3 0.0 5.474687 4.298429 13.804077
421 138 6 0.0 5.50047 3.325897 14.300119
422 138 6 0.0 6.335874 4.373009 13.136743
423 138 6 0.0 5.56391 5.074268 14.566451
424 138 4 0.0 4.160363 4.469249 13.014028
425 138 6 0.0 4.146844 5.460359 12.552055
426 138 6 0.0 3.316714 4.419857 13.708087
427 138 3 0.0 3.975538 3.398971 11.917991
428 138 6 0.0 3.035885 3.557529 11.385951
429 138 6 0.0 4.791585 3.446552 11.19394
430 138 6 0.0 3.956181 2.39944 12.357316
431 139 3 0.0 14.293851 4.743792 4.66784
432 139 6 0.0 14.45742 5.625934 4.045257
433 139 6 0.0 14.240944 5.058395 5.712237
434 139 6 0.0 15.152297 4.079687 4.553219
435 139 4 0.0 12.99534 4.020848 4.253081
436 139 6 0.0 12.870478 3.12712 4.870787
437 139 6 0.0 13.085587 3.691075 3.214329
438 139 3 0.0 11.742258 4.910293 4.393174
439 139 6 0.0 10.84955 4.36044 4.090043
440 139 6 0.0 11.612602 5.229836 5.429286
441 139 6 0.0 11.829078 5.797374 3.762305
442 140 3 0.0 4.34305 14.400208 4.153947
443 140 6 0.0 4.752843 14.630303 3.168216
444 140 6 0.0 3.294603 14.704854 4.176069
445 140 6 0.0 4.886163 14.987591 4.896316
446 140 4 0.0 4.476182 12.893352 4.458034
447 140 6 0.0 4.086185 12.69478 5.460218
448 140 6 0.0 5.535219 12.620699 4.458728
449 140 3 0.0 3.72758 12.007323 3.440439
450 140 6 0.0 3.848307 10.952468 3.693144
451 140 6 0.0 2.660659 12.23997 3.441156
452 140 6 0.0 4.118899 12.165419 2.433304
453 141 3 0.0 12.137514 12.009782 13.448256
454 141 6 0.0 12.154152 11.206949 12.708174
455 141 6 0.0 12.66288 11.67045 14.343457
456 141 6 0.0 11.098058 12.207811 13.715496
457 141 4 0.0 12.799175 13.283265 12.881464
458 141 6 0.0 12.743345 14.078803 13.629731
459 141 6 0.0 12.237829 13.618228 12.004771
460 141 3 0.0 14.274331 13.067006 12.483847
461 141 6 0.0 14.701359 13.990622 12.089214
462 141 6 0.0 14.863932 12.759537 13.350033
463 141 6 0.0 14.355205 12.296036 11.714751
464 142 3 0.0 1.215022 -0.694857 8.439874
465 142 6 0.0 1.226565 -1.541967 9.128939
466 142 6 0.0 1.183288 -1.076875 7.417331
467 142 6 0.0 2.143796 -0.136268 8.568175
468 142 4 0.0 -0.001381 0.212995 8.717318
469 142 6 0.0 0.026602 1.067106 8.034961
470 142 6 0.0 0.069606 0.60495 9.735764
471 142 3 0.0 -1.348396 -0.521257 8.55186
472 142 6 0.0 -2.17889 0.156492 8.757021
473 142 6 0.0 -1.457227 -0.897983 7.532704
474 142 6 0.0 -1.41395 -1.363075 9.244312
475 143 3 0.0 9.27863 0.445059 -1.124944
476 143 6 0.0 10.277937 0.014111 -1.03435
477 143 6 0.0 8.744756 -0.075696 -1.922649
478 143 6 0.0 9.382271 1.493489 -1.409822
479 143 4 0.0 8.512861 0.323298 0.209064
480 143 6 0.0 7.528637 0.787376 0.100271
481 143 6 0.0 9.05214 0.876615 0.982962
482 143 3 0.0 8.333388 -1.13934 0.6667
483 143 6 0.0 7.788306 -1.178265 1.611435
484 143 6 0.0 7.771058 -1.707692 -0.077077
485 143 6 0.0 9.30424 -1.617886 0.811221
486 144 3 0.0 -0.552085 7.41394 -0.498753
487 144 6 0.0 -0.842803 7.545872 -1.543079
488 144 6 0.0 0.280008 6.708113 -0.454391
489 144 6 0.0 -1.397036 6.981656 0.040033
490 144 4 0.0 -0.150016 8.765866 0.1269
491 144 6 0.0 0.107864 8.610952 1.178279
492 144 6 0.0 -1.007858 9.443422 0.096464
493 144 3 0.0 1.042821 9.429183 -0.592894
494 144 6 0.0 1.292442 10.379965 -0.118701
495 144 6 0.0 1.922851 8.784 -0.551305
496 144 6 0.0 0.800041 9.621759 -1.639993
497 145 5 0.0 7.043126 2.291862 6.136344
498 145 6 0.0 6.55568 2.833881 5.331422
499 145 6 0.0 7.819175 1.653062 5.725286
500 145 6 0.0 7.486903 2.997812 6.832034
501 145 6 0.0 6.311437 1.681922 6.657779
502 146 5 0.0 2.108834 6.262255 6.831948
503 146 6 0.0 1.417336 6.498598 6.028667
504 146 6 0.0 1.933096 5.246856 7.174537
505 146 6 0.0 3.12884 6.350114 6.469792
506 146 6 0.0 1.957048 6.953118 7.655937
507 147 5 0.0 6.269715 5.949764 2.477455
508 147 6 0.0 6.288573 5.564439 3.492569
509 147 6 0.0 5.723346 5.262109 1.838786
510 147 6 0.0 5.780521 6.919229 2.466746
511 147 6 0.0 7.286395 6.053828 2.110276
512 148 5 0.0 10.74328 1.280048 11.068984
513 148 6 0.0 10.307684 0.400386 11.533461
514 148 6 0.0 10.045291 2.109175 11.137136
515 148 6 0.0 11.665312 1.540809 11.580012
516 148 6 0.0 10.955455 1.071071 10.024667
517 149 5 0.0 2.297059 11.009749 11.237507
518 149 6 0.0 2.22071 11.311116 10.197009
519 149 6 0.0 3.263535 11.309428 11.631721
520 149 6 0.0 1.508639 11.48697 11.811914
521 149 6 0.0 2.19546 9.931053 11.310865
522 150 5 0.0 10.229681 10.199327 1.7981
523 150 6 0.0 10.979945 10.656057 2.436682
524 150 6 0.0 9.649135 10.975583 1.308529
525 150 6 0.0 10.717922 9.585235 1.047233
526 150 6 0.0 9.570655 9.579781 2.399046
527 151 5 0.0 10.674032 15.160588 5.947631
528 151 6 0.0 9.642588 15.284716 5.631397
529 151 6 0.0 10.790824 15.537359 6.959406
530 151 6 0.0 10.936916 14.107259 5.921562
531 151 6 0.0 11.327265 15.712839 5.278607
532 152 5 0.0 14.691257 10.031956 6.726981
533 152 6 0.0 15.017292 9.111398 6.252048
534 152 6 0.0 13.617373 9.997839 6.884767
535 152 6 0.0 15.193707 10.144239 7.683132
536 152 6 0.0 14.936193 10.875657 6.088654
537 153 5 0.0 7.194955 14.757084 11.471997
538 153 6 0.0 6.984518 15.523432 12.212074
539 153 6 0.0 6.941824 13.782093 11.87771
540 153 6 0.0 6.603498 14.942172 10.580251
541 153 6 0.0 8.250279 14.77955 11.216898
542 154 5 0.0 16.226157 6.107883 10.547133
543 154 6 0.0 16.32318 5.751429 11.568316
544 154 6 0.0 16.359081 5.278071 9.859361
545 154 6 0.0 15.239826 6.539804 10.406122
546 154 6 0.0 16.982403 6.862735 10.353281
547 155 5 0.0 6.49066 11.189221 15.029492
548 155 6 0.0 7.017282 12.12365 14.859791
549 155 6 0.0 7.121805 10.357839 14.729916
550 155 6 0.0 6.247156 11.096636 16.083732
551 155 6 0.0 5.575646 11.177432 14.44477
552 156 5 0.0 10.005734 6.737718 14.963923
553 156 6 0.0 9.324311 5.907434 15.123852
554 156 6 0.0 11.019014 6.360629 14.862165
555 156 6 0.0 9.724818 7.26806 14.058875
556 156 6 0.0 9.955762 7.415932 15.810574
557 157 5 0.0 16.104336 2.433021 15.535129
558 157 6 0.0 16.154304 2.298656 14.458683
559 157 6 0.0 16.272307 1.479847 16.027603
560 157 6 0.0 16.866352 3.140706 15.847864
561 157 6 0.0 15.124311 2.813069 15.807897
562 158 5 0.0 2.672744 15.929624 14.766138
563 158 6 0.0 2.054984 15.762433 15.643468
564 158 6 0.0 3.419379 15.144416 14.69354
565 158 6 0.0 2.049691 15.919321 13.876764
566 158 6 0.0 3.167799 16.892564 14.849534
567 159 5 0.0 14.755503 14.823501 2.03406
568 159 6 0.0 14.198788 14.732938 2.962044
569 159 6 0.0 15.652896 15.41051 2.205505
570 159 6 0.0 15.032359 13.835109 1.679489
571 159 6 0.0 14.138761 15.315574 1.287882
572 160 5 0.0 1.357497 1.603796 2.763509
573 160 6 0.0 1.361132 1.609715 3.849437
574 160 6 0.0 1.074275 0.617791 2.407326
575 160 6 0.0 0.64508 2.338075 2.399387
576 160 6 0.0 2.349494 1.849596 2.396343

Bonds

1 3 1 2
2 3 1 3
3 3 4 5
4 3 4 6
5 3 7 8
6 3 7 9
7 3 10 11
8 3 10 12
9 3 13 14
10 3 13 15
11 3 16 17
12 3 16 18
13 3 19 20
14 3 19 21
15 3 22 23
16 3 22 24
17 3 25 26
18 3 25 27
19 3 28 29
20 3 28 30
21 3 31 32
22 3 31 33
23 3 34 35
24 3 34 36
25 3 37 38
26 3 37 39
27 3 40 41
28 3 40 42
29 3 43 44
30 3 43 45
31 3 46 47
32 3 46 48
33 3 49 50
34 3 49 51
35 3 52 53
36 3 52 54
37 3 55 56
38 3 55 57
39 3 58 59
40 3 58 60
41 3 61 62
42 3 61 63
43 3 64 65
44 3 64 66
45 3 67 68
46 3 67 69
47 3 70 71
48 3 70 72
49 3 73 74
50 3 73 75
51 3 76 77
52 3 76 78
53 3 79 80
54 3 79 81
55 3 82 83
56 3 82 84
57 3 85 86
58 3 85 87
59 3 88 89
60 3 88 90
61 3 91 92
62 3 91 93
63 3 94 95
64 3 94 96
65 3 97 98
66 3 97 99
67 3 100 101
68 3 100 102
69 3 103 104
70 3 103 105
71 3 106 107
72 3 106 108
73 3 109 110
74 3 109 111
75 3 112 113
76 3 112 114
77 3 115 116
78 3 115 117
79 3 118 119
80 3 118 120
81 3 121 122
82 3 121 123
83 3 124 125
84 3 124 126
85 3 127 128
86 3 127 129
87 3 130 131
88 3 130 132
89 3 133 134
90 3 133 135
91 3 136 137
92 3 136 138
93 3 139 140
94 3 139 141
95 3 142 143
96 3 142 144
97 3 145 146
98 3 145 147
99 3 148 149
100 3 148 150
101 3 151 152
102 3 151 153
103 3 154 155
104 3 154 156
105 3 157 158
106 3 157 159
107 3 160 161
108 3 160 162
109 3 163 164
110 3 163 165
111 3 166 167
112 3 166 168
113 3 169 170
114 3 169 171
115 3 172 173
116 3 172 174
117 3 175 176
118 3 175 177
119 3 178 179
120 3 178 180
121 3 181 182
122 3 181 183
123 3 184 185
124 3 184 186
125 3 187 188
126 3 187 189
127 3 190 191
128 3 190 192
129 3 193 194
130 3 193 195
131 3 196 197
132 3 196 198
133 3 199 200
134 3 199 201
135 3 202 203
136 3 202 204
137 3 205 206
138 3 205 207
139 3 208 209
140 3 208 210
141 3 211 212
142 3 211 213
143 3 214 215
144 3 214 216
145 3 217 218
146 3 217 219
147 3 220 221
148 3 220 222
149 3 223 224
150 3 223 225
151 3 226 227
152 3 226 228
153 3 229 230
154 3 229 231
155 3 232 233
156 3 232 234
157 3 235 236
158 3 235 237
159 3 238 239
160 3 238 240
161 3 241 242
162 3 241 243
163 3 244 245
164 3 244 246
165 3 247 248
166 3 247 249
167 3 250 251
168 3 250 252
169 3 253 254
170 3 253 255
171 3 256 257
172 3 256 258
173 3 259 260
174 3 259 261
175 3 262 263
176 3 262 264
177 3 265 266
178 3 265 267
179 3 268 269
180 3 268 270
181 3 271 272
182 3 271 273
183 3 274 275
184 3 274 276
185 3 277 278
186 3 277 279
187 3 280 281
188 3 280 282
189 3 283 284
190 3 283 285
191 3 286 287
192 3 286 288
193 3 289 290
194 3 289 291
195 3 292 293
196 3 292 294
197 3 295 296
198 3 295 297
199 3 298 299
200 3 298 300
201 3 301 302
202 3 301 303
203 3 304 305
204 3 304 306
205 3 307 308
206 3 307 309
207 3 310 311
208 3 310 312
209 3 313 314
210 3 313 315
211 3 316 317
212 3 316 318
213 3 319 320
214 3 319 321
215 3 322 323
216 3 322 324
217 3 325 326
218 3 325 327
219 3 328 329
220 3 328 330
221 3 331 332
222 3 331 333
223 3 334 335
224 3 334 336
225 3 337 338
226 3 337 339
227 3 340 341
228 3 340 342
229 3 343 344
230 3 343 345
231 3 346 347
232 3 346 348
233 3 349 350
234 3 349 351
235 3 352 353
236 3 352 354
237 3 355 356
238 3 355 357
239 3 358 359
240 3 358 360
241 3 361 362
242 3 361 363
243 3 364 365
244 3 364 366
245 3 367 368
246 3 367 369
247 3 370 371
248 3 370 372
249 3 373 374
250 3 373 375
251 3 376 377
252 3 376 378
253 3 379 380
254 3 379 381
255 3 382 383
256 3 382 384
257 3 385 386
258 3 385 387
259 3 388 389
260 3 388 390
261 3 391 392
262 3 391 393
263 3 394 395
264 3 394 396
265 3 397 398
266 3 397 399
267 3 400 401
268 3 400 402
269 3 403 404
270 3 403 405
271 3 406 407
272 3 406 408
273 2 409 410
274 2 409 411
275 2 409 412
276 1 409 413
277 2 413 414
278 2 413 415
279 1 413 416
280 2 416 417
281 2 416 418
282 2 416 419
283 2 420 421
284 2 420 422
285 2 420 423
286 1 420 424
287 2 424 425
288 2 424 426
289 1 424 427
290 2 427 428
291 2 427 429
292 2 427 430
293 2 431 432
294 2 431 433
295 2 431 434
296 1 431 435
297 2 435 436
298 2 435 437
299 1 435 438
300 2 438 439
301 2 438 440
302 2 438 441
303 2 442 443
304 2 442 444
305 2 442 445
306 1 442 446
307 2 446 447
308 2 446 448
309 1 446 449
310 2 449 450
311 2 449 451
312 2 449 452
313 2 453 454
314 2 453 455
315 2 453 456
316 1 453 457
317 2 457 458
318 2 457 459
319 1 457 460
320 2 460 461
321 2 460 462
322 2 460 463
323 2 464 465
324 2 464 466
325 2 464 467
326 1 464 468
327 2 468 469
328 2 468 470
329 1 468 471
330 2 471 472
331 2 471 473
332 2 471 474
333 2 475 476
334 2 475 477
335 2 475 478
336 1 475 479
337 2 479 480
338 2 479 481
339 1 479 482
340 2 482 483
341 2 482 484
342 2 482 485
343 2 486 487
344 2 486 488
345 2 486 489
346 1 486 490
347 2 490 491
348 2 490 492
349 1 490 493
350 2 493 494
351 2 493 495
352 2 493 496
353 2 497 498
354 2 497 499
355 2 497 500
356 2 497 501
357 2 502 503
358 2 502 504
359 2 502 505
360 2 502 506
361 2 507 508
362 2 507 509
363 2 507 510
364 2 507 511
365 2 512 513
366 2 512 514
367 2 512 515
368 2 512 516
369 2 517 518
370 2 517 519
371 2 517 520
372 2 517 521
373 2 522 523
374 2 522 524
375 2 522 525
376 2 522 526
377 2 527 528
378 2 527 529
379 2 527 530
380 2 527 531
381 2 532 533
382 2 532 534
383 2 532 535
384 2 532 536
385 2 537 538
386 2 537 539
387 2 537 540
388 2 537 541
389 2 542 543
390 2 542 544
391 2 542 545
392 2 542 546
393 2 547 548
394 2 547 549
395 2 547 550
396 2 547 551
397 2 552 553
398 2 552 554
399 2 552 555
400 2 552 556
401 2 557 558
402 2 557 559
403 2 557 560
404 2 557 561
405 2 562 563
406 2 562 564
407 2 562 565
408 2 562 566
409 2 567 568
410 2 567 569
411 2 567 570
412 2 567 571
413 2 572 573
414 2 572 574
415 2 572 575
416 2 572 576

Angles

1 1 409 413 416
2 1 420 424 427
3 1 431 435 438
4 1 442 446 449
5 1 453 457 460
6 1 464 468 471
7 1 475 479 482
8 1 486 490 493
9 2 410 409 411
10 2 410 409 412
11 2 411 409 412
12 2 417 416 418
13 2 417 416 419
14 2 418 416 419
15 2 421 420 422
16 2 421 420 423
17 2 422 420 423
18 2 428 427 429
19 2 428 427 430
20 2 429 427 430
21 2 432 431 433
22 2 432 431 434
23 2 433 431 434
24 2 439 438 440
25 2 439 438 441
26 2 440 438 441
27 2 443 442 444
28 2 443 442 445
29 2 444 442 445
30 2 450 449 451
31 2 450 449 452
32 2 451 449 452
33 2 454 453 455
34 2 454 453 456
35 2 455 453 456
36 2 461 460 462
37 2 461 460 463
38 2 462 460 463
39 2 465 464 466
40 2 465 464 467
41 2 466 464 467
42 2 472 471 473
43 2 472 471 474
44 2 473 471 474
45 2 476 475 477
46 2 476 475 478
47 2 477 475 478
48 2 483 482 484
49 2 483 482 485
50 2 484 482 485
51 2 487 486 488
52 2 487 486 489
53 2 488 486 489
54 2 494 493 495
55 2 494 493 496
56 2 495 493 496
57 2 414 413 415
58 2 425 424 426
59 2 436 435 437
60 2 447 446 448
61 2 458 457 459
62 2 469 468 470
63 2 480 479 481
64 2 491 490 492
65 2 498 497 499
66 2 498 497 500
67 2 498 497 501
68 2 499 497 500
69 2 499 497 501
70 2 500 497 501
71 2 503 502 504
72 2 503 502 505
73 2 503 502 506
74 2 504 502 505
75 2 504 502 506
76 2 505 502 506
77 2 508 507 509
78 2 508 507 510
79 2 508 507 511
80 2 509 507 510
81 2 509 507 511
82 2 510 507 511
83 2 513 512 514
84 2 513 512 515
85 2 513 512 516
86 2 514 512 515
87 2 514 512 516
88 2 515 512 516
89 2 518 517 519
90 2 518 517 520
91 2 518 517 521
92 2 519 517 520
93 2 519 517 521